 &FCI NORB=  16,NELEC=20,MS2=2,
  ORBSYM=1,1,1,1,1,1,1,1,1,1,1,1,1,1,1,1,
  ISYM=1,
 &END
 0.4051651569170632    1    1    1    1
 0.001614531988397541    1    1    2    1
 0.1685612353615864    1    1    2    2
 0.001257930606991479    1    1    3    1
 -0.005961527602180982    1    1    3    2
 0.3473591189921015    1    1    3    3
 0.0003189875269844391    1    1    4    1
 -0.0004301799848412519    1    1    4    2
 -0.0008442141063480393    1    1    4    3
 0.1704757638985327    1    1    4    4
 0.006280650297725245    1    1    5    1
 0.002628507711117907    1    1    5    2
 -0.0007906254614703652    1    1    5    3
 0.0004321307601276292    1    1    5    4
 0.1852089836386313    1    1    5    5
 0.0008044709742942498    1    1    6    1
 0.001330077445944172    1    1    6    2
 0.003977737526058634    1    1    6    3
 -0.002472659113667388    1    1    6    4
 4.549460058196441e-05    1    1    6    5
 0.3611549725464199    1    1    6    6
 0.00110956838154695    1    1    7    1
 -0.02229722795673164    1    1    7    2
 -0.00258267033102176    1    1    7    3
 -0.004116143277973536    1    1    7    4
 0.006352117217691626    1    1    7    5
 -1.777346537001502e-05    1    1    7    6
 0.2985629202984261    1    1    7    7
 0.007274519145691033    1    1    8    1
 -0.0038996674175397    1    1    8    2
 -0.0004229033000827787    1    1    8    3
 0.01104534571441423    1    1    8    4
 -0.009332476239014564    1    1    8    5
 0.0041700747831756    1    1    8    6
 -0.001133057738415973    1    1    8    7
 0.3102275476708798    1    1    8    8
 -0.005029276038887001    1    1    9    1
 7.480704133697005e-05    1    1    9    2
 -0.02127787719715487    1    1    9    3
 0.0002540762945797275    1    1    9    4
 0.0002493067174783974    1    1    9    5
 0.00421854606287978    1    1    9    6
 0.0007582411190012377    1    1    9    7
 -0.002012415640269258    1    1    9    8
 0.2106858299283099    1    1    9    9
 0.01807291319691091    1    1   10    1
 -0.003195186826861815    1    1   10    2
 0.007243528173872735    1    1   10    3
 0.005451455104505007    1    1   10    4
 0.009728411642826069    1    1   10    5
 0.007164905777630958    1    1   10    6
 -0.001686718739878854    1    1   10    7
 0.004812580686702614    1    1   10    8
 -0.006198839080205075    1    1   10    9
 0.2087726432929177    1    1   10   10
 0.01149788002241974    1    1   11    1
 -0.002930986773518414    1    1   11    2
 0.0007329820985024926    1    1   11    3
 -0.009354261358200519    1    1   11    4
 -0.01939105819499493    1    1   11    5
 -0.002325113462142421    1    1   11    6
 0.001918865942405646    1    1   11    7
 0.00279944801861588    1    1   11    8
 -0.0003901626869505047    1    1   11    9
 0.006537903189394088    1    1   11   10
 0.3086979144586319    1    1   11   11
 0.0003785177040625551    1    1   12    1
 -0.00530369685754657    1    1   12    2
 -0.000714165017144488    1    1   12    3
 0.01507956652221008    1    1   12    4
 -0.02107276009462596    1    1   12    5
 0.003691014086757093    1    1   12    6
 0.0006533843450335188    1    1   12    7
 -0.000448678086870051    1    1   12    8
 -0.0002347841079978471    1    1   12    9
 0.001240147817138073    1    1   12   10
 -0.007986902286293764    1    1   12   11
 0.2976786300271941    1    1   12   12
 -0.007810048216001224    1    1   13    1
 -0.008049948001293942    1    1   13    2
 0.007871516427003863    1    1   13    3
 -0.002996086051924346    1    1   13    4
 -0.003425597498977546    1    1   13    5
 -0.007601490912476801    1    1   13    6
 -0.00179249831174435    1    1   13    7
 -0.001350592878045273    1    1   13    8
 -0.003284796054171992    1    1   13    9
 -0.005845958139252322    1    1   13   10
 -0.002684064520800917    1    1   13   11
 -0.0008129194382656691    1    1   13   12
 0.1989834456789277    1    1   13   13
 0.002346441995134809    1    1   14    1
 0.01262590090190498    1    1   14    2
 -0.002097144185060417    1    1   14    3
 -0.002608024366352252    1    1   14    4
 -0.00228702509320141    1    1   14    5
 -0.0004826342021418845    1    1   14    6
 0.007255043764708513    1    1   14    7
 0.00143364704266069    1    1   14    8
 0.002499234537146106    1    1   14    9
 0.0006365617596226225    1    1   14   10
 0.0008704262108477797    1    1   14   11
 0.001800016137911886    1    1   14   12
 -0.0004829999209820694    1    1   14   13
 0.3068870550531692    1    1   14   14
 0.003911928048267689    1    1   15    1
 -0.001992246378624572    1    1   15    2
 -0.006288019113761704    1    1   15    3
 0.01827492049193008    1    1   15    4
 5.641157069286014e-05    1    1   15    5
 -0.02043863711221255    1    1   15    6
 0.001677935285600811    1    1   15    7
 -0.0071943629349422    1    1   15    8
 0.0006379587474877409    1    1   15    9
 0.004510827953605756    1    1   15   10
 0.0003730444554027351    1    1   15   11
 -0.007308463817434469    1    1   15   12
 -0.002756200545595228    1    1   15   13
 0.001201355367115683    1    1   15   14
 0.2069669163320607    1    1   15   15
 0.004070237165891173    1    1   16    1
 -0.0004207240207003257    1    1   16    2
 -0.009299545784545449    1    1   16    3
 -0.01142829748041572    1    1   16    4
 -0.006920875052964559    1    1   16    5
 -0.03597785542584726    1    1   16    6
 0.001004773950459794    1    1   16    7
 -0.001257747214019848    1    1   16    8
 0.00133889982323875    1    1   16    9
 -0.01185019701448351    1    1   16   10
 0.0003497814179328931    1    1   16   11
 -0.0001275074958528602    1    1   16   12
 0.005380308121916528    1    1   16   13
 -0.0001630713616630183    1    1   16   14
 0.05041826858388716    1    1   16   15
 0.3121762912865628    1    1   16   16
 0.001614531988397552    2    1    1    1
 0.001026136849019238    2    1    2    1
 0.001498773507018855    2    1    2    2
 -0.0002362950809429857    2    1    3    1
 -0.0002880769610063422    2    1    3    2
 0.001247394393867906    2    1    3    3
 -2.60387773645561e-05    2    1    4    1
 0.0001167383215857846    2    1    4    2
 0.0003132647346718277    2    1    4    3
 0.001554554818551087    2    1    4    4
 0.0002305863701232819    2    1    5    1
 -0.000286426050084833    2    1    5    2
 -0.0005910737011453251    2    1    5    3
 0.0001123232771053509    2    1    5    4
 0.001647789483112848    2    1    5    5
 0.0002731009686155191    2    1    6    1
 0.0003259411685334568    2    1    6    2
 0.0004137730630273598    2    1    6    3
 -0.0001171310068768732    2    1    6    4
 0.0001701505287039442    2    1    6    5
 0.001124966272461466    2    1    6    6
 -0.0002176148732682298    2    1    7    1
 -7.404577790850789e-05    2    1    7    2
 9.307862543761681e-06    2    1    7    3
 -3.904888179755016e-05    2    1    7    4
 -0.0001953159322830964    2    1    7    5
 -0.0001446052615423543    2    1    7    6
 0.002211131671145812    2    1    7    7
 -0.0001316689746986935    2    1    8    1
 -3.892311558644115e-05    2    1    8    2
 -0.0001166812715075595    2    1    8    3
 0.000107193562194568    2    1    8    4
 -0.0001575541176516155    2    1    8    5
 -0.0001585729989827772    2    1    8    6
 0.001244201065300057    2    1    8    7
 0.002085101848728187    2    1    8    8
 -8.894278871899871e-05    2    1    9    1
 6.705222179192855e-05    2    1    9    2
 -1.288582330305341e-06    2    1    9    3
 2.670173270349075e-06    2    1    9    4
 2.380521704319538e-05    2    1    9    5
 0.0002416014837000231    2    1    9    6
 -9.478367403388286e-07    2    1    9    7
 2.199792228904451e-05    2    1    9    8
 0.0009937663986273669    2    1    9    9
 0.0001338419899779485    2    1   10    1
 7.208856597756467e-05    2    1   10    2
 -3.799528085583354e-05    2    1   10    3
 3.873410068293904e-05    2    1   10    4
 4.805552708473497e-05    2    1   10    5
 -0.0001822230574286157    2    1   10    6
 5.672551064001825e-05    2    1   10    7
 -8.784376229412325e-07    2    1   10    8
 0.0001438408029182381    2    1   10    9
 0.001391521853514951    2    1   10   10
 -0.0003079240702806831    2    1   11    1
 -9.928768047374334e-06    2    1   11    2
 -0.0002322157690306317    2    1   11    3
 1.442419920805156e-05    2    1   11    4
 -7.971132735688298e-05    2    1   11    5
 5.474911993346573e-05    2    1   11    6
 0.001227641950152337    2    1   11    7
 0.0002291509406855079    2    1   11    8
 -5.254709909903058e-06    2    1   11    9
 3.875332956619792e-05    2    1   11   10
 0.002341052377754875    2    1   11   11
 9.343698463887615e-05    2    1   12    1
 -9.300282123565611e-05    2    1   12    2
 -0.0001324556472226097    2    1   12    3
 8.036943281555122e-05    2    1   12    4
 -0.0001502256009210266    2    1   12    5
 -5.792457356993688e-05    2    1   12    6
 -0.0001525443975400799    2    1   12    7
 0.000411884087005762    2    1   12    8
 2.72487404355364e-05    2    1   12    9
 1.3433557693287e-06    2    1   12   10
 -9.339471791270316e-05    2    1   12   11
 0.001928534851178921    2    1   12   12
 -0.0001924905215414667    2    1   13    1
 9.99482628158643e-05    2    1   13    2
 2.443213553866206e-05    2    1   13    3
 -1.505276672163095e-05    2    1   13    4
 3.691651714033187e-05    2    1   13    5
 2.389622493602686e-05    2    1   13    6
 5.038110620710048e-06    2    1   13    7
 7.549696374246037e-06    2    1   13    8
 -0.0001241775969271795    2    1   13    9
 0.0002380993859824744    2    1   13   10
 -6.221195906990898e-05    2    1   13   11
 2.395129747354167e-05    2    1   13   12
 0.0008806792993579593    2    1   13   13
 3.65712133919331e-05    2    1   14    1
 0.0001513878340700673    2    1   14    2
 0.0002546664312813716    2    1   14    3
 -5.502456670273057e-05    2    1   14    4
 0.0002514488420448725    2    1   14    5
 -0.0001455616959206492    2    1   14    6
 0.000357713593623335    2    1   14    7
 0.000182562759783299    2    1   14    8
 -1.249731930569318e-05    2    1   14    9
 -0.000109066721907889    2    1   14   10
 -0.0009127932052472896    2    1   14   11
 0.0008639772793803508    2    1   14   12
 3.113340652302063e-05    2    1   14   13
 0.001469333990670851    2    1   14   14
 -0.0001301468067667506    2    1   15    1
 -0.0001776609739748041    2    1   15    2
 -0.0001670247446259851    2    1   15    3
 -0.0002301964972600748    2    1   15    4
 -4.266406803892234e-05    2    1   15    5
 -0.000223683681513935    2    1   15    6
 -0.0001000358046451789    2    1   15    7
 -0.0001257295534128677    2    1   15    8
 0.0002118017915502641    2    1   15    9
 4.842812569335182e-05    2    1   15   10
 -9.921624614756355e-05    2    1   15   11
 -7.003086409198382e-05    2    1   15   12
 6.10669953652309e-05    2    1   15   13
 -3.351978026196918e-06    2    1   15   14
 0.001547013739811098    2    1   15   15
 -0.0003945359863332239    2    1   16    1
 1.569059243794873e-05    2    1   16    2
 -0.0004405123951750732    2    1   16    3
 0.00014586815169252    2    1   16    4
 -5.549504699020902e-05    2    1   16    5
 -0.0002542833279841614    2    1   16    6
 -1.968483264086644e-05    2    1   16    7
 -8.719986834929151e-05    2    1   16    8
 0.0003417556702047289    2    1   16    9
 -0.000308158552747776    2    1   16   10
 -0.0001308079130759036    2    1   16   11
 2.849520447646631e-05    2    1   16   12
 7.06941122188025e-05    2    1   16   13
 0.0002314938101661575    2    1   16   14
 -0.0001178085148927204    2    1   16   15
 0.001331709341747052    2    1   16   16
 0.1685612353615862    2    2    1    1
 0.001498773507018863    2    2    2    1
 0.3661894037646541    2    2    2    2
 0.0004420790097084475    2    2    3    1
 -0.007099114184795039    2    2    3    2
 0.1629290496740138    2    2    3    3
 -0.001890353780252286    2    2    4    1
 -0.0004402690823355035    2    2    4    2
 1.641763487231242e-05    2    2    4    3
 0.3488601869839594    2    2    4    4
 0.002667874709395364    2    2    5    1
 -3.716529655514167e-05    2    2    5    2
 0.0002409654415231869    2    2    5    3
 0.002451837242086992    2    2    5    4
 0.3447563210219678    2    2    5    5
 0.005038742492859422    2    2    6    1
 0.002873927757096509    2    2    6    2
 0.001318135090466037    2    2    6    3
 -0.002183587820913322    2    2    6    4
 0.0001125739814289947    2    2    6    5
 0.1707609749473283    2    2    6    6
 -0.001823843104259814    2    2    7    1
 0.01731003137205677    2    2    7    2
 0.001259062304426212    2    2    7    3
 0.002494713547005494    2    2    7    4
 -0.004504132645078956    2    2    7    5
 0.0009336467985575991    2    2    7    6
 0.253232040644065    2    2    7    7
 -0.01214856464478944    2    2    8    1
 0.002281015363365469    2    2    8    2
 -0.004847429868040512    2    2    8    3
 -0.007521478928143779    2    2    8    4
 0.008803213396442364    2    2    8    5
 -0.0103373032148977    2    2    8    6
 6.748188355285065e-05    2    2    8    7
 0.2422536509788461    2    2    8    8
 0.000857036231689416    2    2    9    1
 0.008548689842740896    2    2    9    2
 0.006216084696349865    2    2    9    3
 0.001423717756125456    2    2    9    4
 -0.002900882749297519    2    2    9    5
 -0.0009546387183371322    2    2    9    6
 0.001210377017286409    2    2    9    7
 -0.0003100693930467852    2    2    9    8
 0.1949273513022162    2    2    9    9
 -0.004163095686052165    2    2   10    1
 0.01043829954973225    2    2   10    2
 -0.005270094261388983    2    2   10    3
 0.001709609441806803    2    2   10    4
 -0.01560150519024469    2    2   10    5
 -0.008414086163257671    2    2   10    6
 0.002721968673492921    2    2   10    7
 -0.003056971032374576    2    2   10    8
 0.003669475933452792    2    2   10    9
 0.2058931371975107    2    2   10   10
 -0.01395469313735599    2    2   11    1
 0.003198795074266739    2    2   11    2
 -0.002301299915781456    2    2   11    3
 0.008167413880473659    2    2   11    4
 0.01221320737045391    2    2   11    5
 0.004250650110635495    2    2   11    6
 -3.803106482558384e-05    2    2   11    7
 -0.002264628868550303    2    2   11    8
 0.0004810743820125711    2    2   11    9
 -0.002524504118437005    2    2   11   10
 0.2477049852282039    2    2   11   11
 0.004497511791267264    2    2   12    1
 0.005714425578284939    2    2   12    2
 0.002443753935562443    2    2   12    3
 -0.008561653452816559    2    2   12    4
 0.01192683769949272    2    2   12    5
 -0.004562793899547559    2    2   12    6
 0.0005224343841108831    2    2   12    7
 0.004032349739395005    2    2   12    8
 -0.0006036668011444735    2    2   12    9
 -0.001815412863832137    2    2   12   10
 0.003200005385695016    2    2   12   11
 0.2502467379457179    2    2   12   12
 0.001461338316235086    2    2   13    1
 0.02345525333398996    2    2   13    2
 -0.004652697182529416    2    2   13    3
 0.000635951775997527    2    2   13    4
 0.002703209670447381    2    2   13    5
 0.006756479138799733    2    2   13    6
 0.003124078261113873    2    2   13    7
 0.00199753720695554    2    2   13    8
 0.006254156948006059    2    2   13    9
 0.003507317966319827    2    2   13   10
 0.0007346957286321131    2    2   13   11
 0.002052105204981206    2    2   13   12
 0.2057935153400586    2    2   13   13
 -0.005157771971221924    2    2   14    1
 -0.004564629510441291    2    2   14    2
 0.01635185362143052    2    2   14    3
 0.001751791859210175    2    2   14    4
 0.002966708185450532    2    2   14    5
 -0.003508274368650671    2    2   14    6
 -0.003906012011863069    2    2   14    7
 -0.0005264976006143804    2    2   14    8
 -0.001530742558531837    2    2   14    9
 -0.0008638654929403484    2    2   14   10
 -0.000140145315757279    2    2   14   11
 -0.0008424509678970538    2    2   14   12
 -0.0001134226588831266    2    2   14   13
 0.2416196586323494    2    2   14   14
 -0.007390416445952758    2    2   15    1
 0.0003147519002925964    2    2   15    2
 0.001789462856241326    2    2   15    3
 -0.03439466703981531    2    2   15    4
 -0.01609701126510118    2    2   15    5
 0.001575047106039242    2    2   15    6
 -5.027336222909424e-05    2    2   15    7
 0.0003212387362780166    2    2   15    8
 0.001113217810953173    2    2   15    9
 0.003930222431460049    2    2   15   10
 -0.006571546833910905    2    2   15   11
 0.002233920204345841    2    2   15   12
 0.0004114773753235339    2    2   15   13
 -0.001708028665967755    2    2   15   14
 0.2861157925890251    2    2   15   15
 -0.008407353313988238    2    2   16    1
 0.0001467415886550961    2    2   16    2
 0.004984635359575075    2    2   16    3
 0.01385922744570841    2    2   16    4
 0.004011199777270447    2    2   16    5
 0.01810487920886225    2    2   16    6
 -0.0006534407951040092    2    2   16    7
 -0.001139529265998232    2    2   16    8
 -0.0008982597931035696    2    2   16    9
 -0.009199947481399247    2    2   16   10
 -0.002559104052772401    2    2   16   11
 0.0006035031797120841    2    2   16   12
 0.004525302394494243    2    2   16   13
 -0.001071689565523765    2    2   16   14
 -0.0528338112425108    2    2   16   15
 0.206279933230836    2    2   16   16
 0.001257930606991485    3    1    1    1
 -0.0002362950809429863    3    1    2    1
 0.0004420790097084437    3    1    2    2
 0.01938903167486927    3    1    3    1
 0.0002144650559782882    3    1    3    2
 0.0006482124948180123    3    1    3    3
 -4.084541524720184e-05    3    1    4    1
 0.0003631374729668275    3    1    4    2
 3.075662648559481e-05    3    1    4    3
 0.0003875259685372155    3    1    4    4
 0.0001824954905286892    3    1    5    1
 -0.001157613932817033    3    1    5    2
 -0.0002518075092864695    3    1    5    3
 -0.0001114698019927234    3    1    5    4
 0.001568678570204738    3    1    5    5
 0.0006281436011805749    3    1    6    1
 0.0005480172965809566    3    1    6    2
 -0.0001035267550640524    3    1    6    3
 -0.0004225601063828731    3    1    6    4
 -0.0001141120367339901    3    1    6    5
 0.0002380077791354431    3    1    6    6
 0.0002282568855177212    3    1    7    1
 -0.0005581788541865544    3    1    7    2
 0.000920334881057518    3    1    7    3
 6.415515826582752e-07    3    1    7    4
 0.0004134085269144144    3    1    7    5
 -2.689160613422661e-05    3    1    7    6
 0.004958632306715844    3    1    7    7
 -0.0004173814818020472    3    1    8    1
 -0.0006626458662242197    3    1    8    2
 0.002193991968720586    3    1    8    3
 0.0003878011361418343    3    1    8    4
 -0.0004932201808720087    3    1    8    5
 -0.001143749777897306    3    1    8    6
 0.00114552479682392    3    1    8    7
 0.005909410944088454    3    1    8    8
 -0.003015157944652771    3    1    9    1
 0.0002083422742872573    3    1    9    2
 -0.001592632216531925    3    1    9    3
 -9.065271423803914e-06    3    1    9    4
 -0.0005152075753719653    3    1    9    5
 -0.0005863991833078388    3    1    9    6
 -0.0001063846752556628    3    1    9    7
 -0.000918718371596284    3    1    9    8
 -0.002817892139920214    3    1    9    9
 0.001604373343556951    3    1   10    1
 4.979124659779036e-05    3    1   10    2
 0.001261359840498563    3    1   10    3
 0.0004902654167231914    3    1   10    4
 -2.082701864667087e-06    3    1   10    5
 -0.0006376867657712118    3    1   10    6
 0.0001897632447688373    3    1   10    7
 0.0001540669588630409    3    1   10    8
 -0.002092586268138306    3    1   10    9
 -0.002196933035160666    3    1   10   10
 -0.000982255048832589    3    1   11    1
 -0.000152830691989275    3    1   11    2
 0.00326864243934503    3    1   11    3
 -0.0003869838710527547    3    1   11    4
 -0.0007740351926637535    3    1   11    5
 1.397972955174436e-05    3    1   11    6
 -0.0009321301048407602    3    1   11    7
 0.0004218054532860417    3    1   11    8
 -0.0005839909677870765    3    1   11    9
 0.0004161487317785004    3    1   11   10
 0.006016991588833549    3    1   11   11
 0.0003112270631481859    3    1   12    1
 -0.0006683088729872841    3    1   12    2
 -0.001363737962160696    3    1   12    3
 0.0005124778688432085    3    1   12    4
 -0.0005316734907805753    3    1   12    5
 -0.0001892486239418527    3    1   12    6
 0.0001459612644593253    3    1   12    7
 0.0001441823663449668    3    1   12    8
 1.28603899444789e-05    3    1   12    9
 -2.469489835193823e-05    3    1   12   10
 -0.0006966851122980139    3    1   12   11
 0.005089631797615143    3    1   12   12
 0.0007681537913541986    3    1   13    1
 0.0002649396699971259    3    1   13    2
 -0.0005999610047173994    3    1   13    3
 0.0002847355266331497    3    1   13    4
 0.000122356358504351    3    1   13    5
 0.0003518991980829287    3    1   13    6
 -4.691054738188779e-05    3    1   13    7
 0.0003233602080507333    3    1   13    8
 0.0004794151919610179    3    1   13    9
 0.0007763219276208215    3    1   13   10
 0.0001239630041387808    3    1   13   11
 -8.345525210283278e-05    3    1   13   12
 -0.002633547957303828    3    1   13   13
 -0.001236447990508545    3    1   14    1
 0.0003903149717956357    3    1   14    2
 0.00232980571344047    3    1   14    3
 -0.0003097101418488525    3    1   14    4
 0.0003204619939745879    3    1   14    5
 0.0008174655243361718    3    1   14    6
 0.0002493594360768919    3    1   14    7
 -0.0009383985720242065    3    1   14    8
 -4.980101542099833e-05    3    1   14    9
 2.203251356045807e-06    3    1   14   10
 -0.002008556355067117    3    1   14   11
 -0.0005933363173765834    3    1   14   12
 5.51452898428486e-05    3    1   14   13
 0.004571669369704191    3    1   14   14
 -0.0007960262086223132    3    1   15    1
 0.000152096053435788    3    1   15    2
 7.533846608890135e-05    3    1   15    3
 -0.000463922980980102    3    1   15    4
 -0.000385507385611961    3    1   15    5
 -0.001015572616127704    3    1   15    6
 -0.0001433332072460941    3    1   15    7
 -0.0005383624799274292    3    1   15    8
 -0.000712270632901134    3    1   15    9
 0.0004822364803292102    3    1   15   10
 -0.0003732471131163722    3    1   15   11
 -0.0003286007620269193    3    1   15   12
 0.0007271852415164596    3    1   15   13
 -0.0005813826293615126    3    1   15   14
 -0.001316059819581363    3    1   15   15
 -0.0008069060801950834    3    1   16    1
 -0.0002337901281031186    3    1   16    2
 0.001035366676228909    3    1   16    3
 -0.0002621371347043135    3    1   16    4
 -0.000553658889423464    3    1   16    5
 -0.0004750252905187914    3    1   16    6
 -0.0007393253297931044    3    1   16    7
 -0.0001671933838421839    3    1   16    8
 -0.00105830512134092    3    1   16    9
 -0.00143626480438116    3    1   16   10
 -0.0001804475211145635    3    1   16   11
 -0.0003820753207440042    3    1   16   12
 0.001132164984546432    3    1   16   13
 -0.001298563212259486    3    1   16   14
 -0.001449493908593723    3    1   16   15
 -0.001648163279170732    3    1   16   16
 -0.005961527602180987    3    2    1    1
 -0.0002880769610063417    3    2    2    1
 -0.007099114184795045    3    2    2    2
 0.0002144650559782876    3    2    3    1
 0.0022128872177218    3    2    3    2
 -0.008320061852301252    3    2    3    3
 0.0003629256407153343    3    2    4    1
 -6.360686600691292e-05    3    2    4    2
 -0.0001340444038413693    3    2    4    3
 -0.00753706121953642    3    2    4    4
 -0.0004446991365390651    3    2    5    1
 0.0004306777955853017    3    2    5    2
 2.577312822121296e-05    3    2    5    3
 -0.0009251413642655588    3    2    5    4
 -0.005263299938688782    3    2    5    5
 0.001034174038992928    3    2    6    1
 -0.0005364091328761926    3    2    6    2
 -0.0001624385671423949    3    2    6    3
 -0.0003982172443841757    3    2    6    4
 -0.0003769062827926464    3    2    6    5
 -0.007972857572878005    3    2    6    6
 -0.0003783145186502685    3    2    7    1
 -0.002751508274221358    3    2    7    2
 0.0008801370130955374    3    2    7    3
 -0.00033224840266989    3    2    7    4
 0.0007553161856062615    3    2    7    5
 2.434430785108137e-05    3    2    7    6
 0.009375205502727569    3    2    7    7
 -0.00218686387160164    3    2    8    1
 -0.0004739465550911903    3    2    8    2
 -0.0007876097169033286    3    2    8    3
 0.001195240502560274    3    2    8    4
 -0.00142931534569145    3    2    8    5
 -0.002484436650553826    3    2    8    6
 0.0005085883609262945    3    2    8    7
 0.009911978762830191    3    2    8    8
 -1.040337186279137e-05    3    2    9    1
 -0.0002380397770612699    3    2    9    2
 0.00102300267773967    3    2    9    3
 -5.79537740579033e-05    3    2    9    4
 3.427008936463473e-05    3    2    9    5
 -8.718202424428645e-05    3    2    9    6
 -0.0001112148231531226    3    2    9    7
 -0.0001273445439957375    3    2    9    8
 -0.0050921356789423    3    2    9    9
 -0.0001070885974627582    3    2   10    1
 -0.0005560600219439529    3    2   10    2
 -0.0006044003441482342    3    2   10    3
 0.0004637351785264237    3    2   10    4
 0.0003856163525287732    3    2   10    5
 -0.0006455792311713255    3    2   10    6
 -0.0001644868362394032    3    2   10    7
 -0.0002661407466870345    3    2   10    8
 -0.0001350020108830925    3    2   10    9
 -0.004317140071533194    3    2   10   10
 -0.002907562670834517    3    2   11    1
 -0.0004071167466981519    3    2   11    2
 -0.0004625274842095323    3    2   11    3
 -0.001318739470650609    3    2   11    4
 -0.002439311490701038    3    2   11    5
 0.0003240104324138774    3    2   11    6
 -0.0002182543354070001    3    2   11    7
 -0.0008144043895268643    3    2   11    8
 7.692957228154777e-05    3    2   11    9
 0.0005125823036062788    3    2   11   10
 0.009079546613986092    3    2   11   11
 0.000496743975751776    3    2   12    1
 -0.0007877161397390034    3    2   12    2
 0.000513990919655656    3    2   12    3
 0.001440433213793034    3    2   12    4
 -0.002291550148154145    3    2   12    5
 -0.001156917023895866    3    2   12    6
 -0.0001166391275483446    3    2   12    7
 -0.0009953375446874232    3    2   12    8
 -0.0001612743729335717    3    2   12    9
 -8.201326422014491e-05    3    2   12   10
 0.0004195498653253141    3    2   12   11
 0.009420976422317004    3    2   12   12
 -6.52787823812955e-06    3    2   13    1
 -0.0007046972098965663    3    2   13    2
 -0.0003735789287072689    3    2   13    3
 -0.0003113164922181142    3    2   13    4
 -3.563147270502023e-05    3    2   13    5
 0.0003500070940457873    3    2   13    6
 -0.0002497302582086925    3    2   13    7
 0.0001590671438728103    3    2   13    8
 -0.0004605142240093246    3    2   13    9
 0.0002764914295758598    3    2   13   10
 -0.0003041713536356287    3    2   13   11
 9.202247653047654e-05    3    2   13   12
 -0.004146821400892512    3    2   13   13
 -0.0007534621599801804    3    2   14    1
 0.001052600457311131    3    2   14    2
 0.003039151062901246    3    2   14    3
 -0.0003229173428135999    3    2   14    4
 -0.000432928377321193    3    2   14    5
 -0.0005212508958041537    3    2   14    6
 -0.0009738058066764883    3    2   14    7
 -0.0003883416230138949    3    2   14    8
 -0.0002471390812737761    3    2   14    9
 0.0003039861465719548    3    2   14   10
 -0.0005182353826748168    3    2   14   11
 -0.0004377676371132253    3    2   14   12
 0.0002255159317365254    3    2   14   13
 0.01096352331860506    3    2   14   14
 -0.0003959571366309992    3    2   15    1
 -0.0001563944352715787    3    2   15    2
 0.0001587186027778108    3    2   15    3
 0.001677137660585644    3    2   15    4
 -1.460709848397743e-05    3    2   15    5
 0.0005629840753340297    3    2   15    6
 0.0001269731970066625    3    2   15    7
 -0.0009267404963886868    3    2   15    8
 -4.964131582902027e-05    3    2   15    9
 0.0001412513438483181    3    2   15   10
 -0.0003955648571267705    3    2   15   11
 -0.0007323191585662191    3    2   15   12
 -0.0002562255646914882    3    2   15   13
 3.783630442517631e-05    3    2   15   14
 -0.00698296227194242    3    2   15   15
 -0.001569892379907042    3    2   16    1
 0.0001393010866106082    3    2   16    2
 0.0004280249554592773    3    2   16    3
 -0.001139542669491634    3    2   16    4
 0.0001266948400935003    3    2   16    5
 0.001759843868939846    3    2   16    6
 -0.0001479117718857223    3    2   16    7
 0.0002256138318230959    3    2   16    8
 1.395853780294323e-05    3    2   16    9
 -0.0005417675494611043    3    2   16   10
 -0.00132367484236926    3    2   16   11
 0.0008249407739822054    3    2   16   12
 0.0002978196821069335    3    2   16   13
 -0.0004810740908315011    3    2   16   14
 -0.0002621589794887389    3    2   16   15
 -0.007178593161060364    3    2   16   16
 0.3473591189921026    3    3    1    1
 0.001247394393867911    3    3    2    1
 0.1629290496740137    3    3    2    2
 0.000648212494818004    3    3    3    1
 -0.008320061852301259    3    3    3    2
 0.3737007636197885    3    3    3    3
 -0.001030562415166846    3    3    4    1
 -0.0001800914999775199    3    3    4    2
 -0.0004824137180094241    3    3    4    3
 0.1655774851512673    3    3    4    4
 0.003341599650514687    3    3    5    1
 0.00116768811106885    3    3    5    2
 -0.001138589328060444    3    3    5    3
 0.002504639595908968    3    3    5    4
 0.1746767859695817    3    3    5    5
 -0.002109228403971073    3    3    6    1
 0.001361803042789088    3    3    6    2
 0.005524041534358107    3    3    6    3
 -0.00112887667193911    3    3    6    4